    1C
    1UUSER                                                              
    1UDATE              02.march.2016                                   
    1UTIME              11:37:55                                        
    1UHOST                                                              
    1UPGM               CalculiX                                        
    1UDIR                                                               
    1UDBN                                                               
    2C                          9261                                     1
 -1         1-5.00000E+00 0.00000E+00 1.00000E+01
 -1         2-5.00000E+00-5.00000E+00 1.00000E+01
 -1         3 0.00000E+00-5.00000E+00 1.00000E+01
 -1         4 0.00000E+00 0.00000E+00 1.00000E+01
 -1         5-5.00000E+00-5.00000E+00 0.00000E+00
 -1         6 0.00000E+00-5.00000E+00 0.00000E+00
 -1         7 0.00000E+00 0.00000E+00 0.00000E+00
 -1         8-5.00000E+00 0.00000E+00 0.00000E+00
 -1         9-5.00000E+00-1.00000E+01 0.00000E+00
 -1        10 0.00000E+00-1.00000E+01 0.00000E+00
 -1        11 0.00000E+00-1.00000E+01 1.00000E+01
 -1        12-5.00000E+00-1.00000E+01 1.00000E+01
 -1        13-1.00000E+01-5.00000E+00 1.00000E+01
 -1        14-1.00000E+01-5.00000E+00 0.00000E+00
 -1        15-1.00000E+01-1.00000E+01 0.00000E+00
 -1        16-1.00000E+01-1.00000E+01 1.00000E+01
 -1        17-1.00000E+01 0.00000E+00 1.00000E+01
 -1        18-1.00000E+01 0.00000E+00 0.00000E+00
 -1        19-5.00000E+00-5.00000E-01 1.00000E+01
 -1        20-5.00000E+00-1.00000E+00 1.00000E+01
 -1        21-5.00000E+00-1.50000E+00 1.00000E+01
 -1        22-5.00000E+00-2.00000E+00 1.00000E+01
 -1        23-5.00000E+00-2.50000E+00 1.00000E+01
 -1        24-5.00000E+00-3.00000E+00 1.00000E+01
 -1        25-5.00000E+00-3.50000E+00 1.00000E+01
 -1        26-5.00000E+00-4.00000E+00 1.00000E+01
 -1        27-5.00000E+00-4.50000E+00 1.00000E+01
 -1        28-4.50000E+00-5.00000E+00 1.00000E+01
 -1        29-4.00000E+00-5.00000E+00 1.00000E+01
 -1        30-3.50000E+00-5.00000E+00 1.00000E+01
 -1        31-3.00000E+00-5.00000E+00 1.00000E+01
 -1        32-2.50000E+00-5.00000E+00 1.00000E+01
 -1        33-2.00000E+00-5.00000E+00 1.00000E+01
 -1        34-1.50000E+00-5.00000E+00 1.00000E+01
 -1        35-1.00000E+00-5.00000E+00 1.00000E+01
 -1        36-5.00000E-01-5.00000E+00 1.00000E+01
 -1        37 0.00000E+00-4.50000E+00 1.00000E+01
 -1        38 0.00000E+00-4.00000E+00 1.00000E+01
 -1        39 0.00000E+00-3.50000E+00 1.00000E+01
 -1        40 0.00000E+00-3.00000E+00 1.00000E+01
 -1        41 0.00000E+00-2.50000E+00 1.00000E+01
 -1        42 0.00000E+00-2.00000E+00 1.00000E+01
 -1        43 0.00000E+00-1.50000E+00 1.00000E+01
 -1        44 0.00000E+00-1.00000E+00 1.00000E+01
 -1        45 0.00000E+00-5.00000E-01 1.00000E+01
 -1        46-5.00000E-01 0.00000E+00 1.00000E+01
 -1        47-1.00000E+00 0.00000E+00 1.00000E+01
 -1        48-1.50000E+00 0.00000E+00 1.00000E+01
 -1        49-2.00000E+00 0.00000E+00 1.00000E+01
 -1        50-2.50000E+00 0.00000E+00 1.00000E+01
 -1        51-3.00000E+00 0.00000E+00 1.00000E+01
 -1        52-3.50000E+00 0.00000E+00 1.00000E+01
 -1        53-4.00000E+00 0.00000E+00 1.00000E+01
 -1        54-4.50000E+00 0.00000E+00 1.00000E+01
 -1        55-5.00000E+00-4.50000E+00 0.00000E+00
 -1        56-5.00000E+00-4.00000E+00 0.00000E+00
 -1        57-5.00000E+00-3.50000E+00 0.00000E+00
 -1        58-5.00000E+00-3.00000E+00 0.00000E+00
 -1        59-5.00000E+00-2.50000E+00 0.00000E+00
 -1        60-5.00000E+00-2.00000E+00 0.00000E+00
 -1        61-5.00000E+00-1.50000E+00 0.00000E+00
 -1        62-5.00000E+00-1.00000E+00 0.00000E+00
 -1        63-5.00000E+00-5.00000E-01 0.00000E+00
 -1        64-5.00000E-01-5.00000E+00 0.00000E+00
 -1        65-1.00000E+00-5.00000E+00 0.00000E+00
 -1        66-1.50000E+00-5.00000E+00 0.00000E+00
 -1        67-2.00000E+00-5.00000E+00 0.00000E+00
 -1        68-2.50000E+00-5.00000E+00 0.00000E+00
 -1        69-3.00000E+00-5.00000E+00 0.00000E+00
 -1        70-3.50000E+00-5.00000E+00 0.00000E+00
 -1        71-4.00000E+00-5.00000E+00 0.00000E+00
 -1        72-4.50000E+00-5.00000E+00 0.00000E+00
 -1        73 0.00000E+00-5.00000E-01 0.00000E+00
 -1        74 0.00000E+00-1.00000E+00 0.00000E+00
 -1        75 0.00000E+00-1.50000E+00 0.00000E+00
 -1        76 0.00000E+00-2.00000E+00 0.00000E+00
 -1        77 0.00000E+00-2.50000E+00 0.00000E+00
 -1        78 0.00000E+00-3.00000E+00 0.00000E+00
 -1        79 0.00000E+00-3.50000E+00 0.00000E+00
 -1        80 0.00000E+00-4.00000E+00 0.00000E+00
 -1        81 0.00000E+00-4.50000E+00 0.00000E+00
 -1        82-4.50000E+00 0.00000E+00 0.00000E+00
 -1        83-4.00000E+00 0.00000E+00 0.00000E+00
 -1        84-3.50000E+00 0.00000E+00 0.00000E+00
 -1        85-3.00000E+00 0.00000E+00 0.00000E+00
 -1        86-2.50000E+00 0.00000E+00 0.00000E+00
 -1        87-2.00000E+00 0.00000E+00 0.00000E+00
 -1        88-1.50000E+00 0.00000E+00 0.00000E+00
 -1        89-1.00000E+00 0.00000E+00 0.00000E+00
 -1        90-5.00000E-01 0.00000E+00 0.00000E+00
 -1        91 0.00000E+00 0.00000E+00 9.50000E+00
 -1        92 0.00000E+00 0.00000E+00 9.00000E+00
 -1        93 0.00000E+00 0.00000E+00 8.50000E+00
 -1        94 0.00000E+00 0.00000E+00 8.00000E+00
 -1        95 0.00000E+00 0.00000E+00 7.50000E+00
 -1        96 0.00000E+00 0.00000E+00 7.00000E+00
 -1        97 0.00000E+00 0.00000E+00 6.50000E+00
 -1        98 0.00000E+00 0.00000E+00 6.00000E+00
 -1        99 0.00000E+00 0.00000E+00 5.50000E+00
 -1       100 0.00000E+00 0.00000E+00 5.00000E+00
 -1       101 0.00000E+00 0.00000E+00 4.50000E+00
 -1       102 0.00000E+00 0.00000E+00 4.00000E+00
 -1       103 0.00000E+00 0.00000E+00 3.50000E+00
 -1       104 0.00000E+00 0.00000E+00 3.00000E+00
 -1       105 0.00000E+00 0.00000E+00 2.50000E+00
 -1       106 0.00000E+00 0.00000E+00 2.00000E+00
 -1       107 0.00000E+00 0.00000E+00 1.50000E+00
 -1       108 0.00000E+00 0.00000E+00 1.00000E+00
 -1       109 0.00000E+00 0.00000E+00 5.00000E-01
 -1       110-5.00000E+00 0.00000E+00 5.00000E-01
 -1       111-5.00000E+00 0.00000E+00 1.00000E+00
 -1       112-5.00000E+00 0.00000E+00 1.50000E+00
 -1       113-5.00000E+00 0.00000E+00 2.00000E+00
 -1       114-5.00000E+00 0.00000E+00 2.50000E+00
 -1       115-5.00000E+00 0.00000E+00 3.00000E+00
 -1       116-5.00000E+00 0.00000E+00 3.50000E+00
 -1       117-5.00000E+00 0.00000E+00 4.00000E+00
 -1       118-5.00000E+00 0.00000E+00 4.50000E+00
 -1       119-5.00000E+00 0.00000E+00 5.00000E+00
 -1       120-5.00000E+00 0.00000E+00 5.50000E+00
 -1       121-5.00000E+00 0.00000E+00 6.00000E+00
 -1       122-5.00000E+00 0.00000E+00 6.50000E+00
 -1       123-5.00000E+00 0.00000E+00 7.00000E+00
 -1       124-5.00000E+00 0.00000E+00 7.50000E+00
 -1       125-5.00000E+00 0.00000E+00 8.00000E+00
 -1       126-5.00000E+00 0.00000E+00 8.50000E+00
 -1       127-5.00000E+00 0.00000E+00 9.00000E+00
 -1       128-5.00000E+00 0.00000E+00 9.50000E+00
 -1       129 0.00000E+00-5.00000E+00 9.50000E+00
 -1       130 0.00000E+00-5.00000E+00 9.00000E+00
 -1       131 0.00000E+00-5.00000E+00 8.50000E+00
 -1       132 0.00000E+00-5.00000E+00 8.00000E+00
 -1       133 0.00000E+00-5.00000E+00 7.50000E+00
 -1       134 0.00000E+00-5.00000E+00 7.00000E+00
 -1       135 0.00000E+00-5.00000E+00 6.50000E+00
 -1       136 0.00000E+00-5.00000E+00 6.00000E+00
 -1       137 0.00000E+00-5.00000E+00 5.50000E+00
 -1       138 0.00000E+00-5.00000E+00 5.00000E+00
 -1       139 0.00000E+00-5.00000E+00 4.50000E+00
 -1       140 0.00000E+00-5.00000E+00 4.00000E+00
 -1       141 0.00000E+00-5.00000E+00 3.50000E+00
 -1       142 0.00000E+00-5.00000E+00 3.00000E+00
 -1       143 0.00000E+00-5.00000E+00 2.50000E+00
 -1       144 0.00000E+00-5.00000E+00 2.00000E+00
 -1       145 0.00000E+00-5.00000E+00 1.50000E+00
 -1       146 0.00000E+00-5.00000E+00 1.00000E+00
 -1       147 0.00000E+00-5.00000E+00 5.00000E-01
 -1       148-5.00000E+00-5.00000E+00 5.00000E-01
 -1       149-5.00000E+00-5.00000E+00 1.00000E+00
 -1       150-5.00000E+00-5.00000E+00 1.50000E+00
 -1       151-5.00000E+00-5.00000E+00 2.00000E+00
 -1       152-5.00000E+00-5.00000E+00 2.50000E+00
 -1       153-5.00000E+00-5.00000E+00 3.00000E+00
 -1       154-5.00000E+00-5.00000E+00 3.50000E+00
 -1       155-5.00000E+00-5.00000E+00 4.00000E+00
 -1       156-5.00000E+00-5.00000E+00 4.50000E+00
 -1       157-5.00000E+00-5.00000E+00 5.00000E+00
 -1       158-5.00000E+00-5.00000E+00 5.50000E+00
 -1       159-5.00000E+00-5.00000E+00 6.00000E+00
 -1       160-5.00000E+00-5.00000E+00 6.50000E+00
 -1       161-5.00000E+00-5.00000E+00 7.00000E+00
 -1       162-5.00000E+00-5.00000E+00 7.50000E+00
 -1       163-5.00000E+00-5.00000E+00 8.00000E+00
 -1       164-5.00000E+00-5.00000E+00 8.50000E+00
 -1       165-5.00000E+00-5.00000E+00 9.00000E+00
 -1       166-5.00000E+00-5.00000E+00 9.50000E+00
 -1       167-5.00000E+00-9.50000E+00 0.00000E+00
 -1       168-5.00000E+00-9.00000E+00 0.00000E+00
 -1       169-5.00000E+00-8.50000E+00 0.00000E+00
 -1       170-5.00000E+00-8.00000E+00 0.00000E+00
 -1       171-5.00000E+00-7.50000E+00 0.00000E+00
 -1       172-5.00000E+00-7.00000E+00 0.00000E+00
 -1       173-5.00000E+00-6.50000E+00 0.00000E+00
 -1       174-5.00000E+00-6.00000E+00 0.00000E+00
 -1       175-5.00000E+00-5.50000E+00 0.00000E+00
 -1       176 0.00000E+00-5.50000E+00 0.00000E+00
 -1       177 0.00000E+00-6.00000E+00 0.00000E+00
 -1       178 0.00000E+00-6.50000E+00 0.00000E+00
 -1       179 0.00000E+00-7.00000E+00 0.00000E+00
 -1       180 0.00000E+00-7.50000E+00 0.00000E+00
 -1       181 0.00000E+00-8.00000E+00 0.00000E+00
 -1       182 0.00000E+00-8.50000E+00 0.00000E+00
 -1       183 0.00000E+00-9.00000E+00 0.00000E+00
 -1       184 0.00000E+00-9.50000E+00 0.00000E+00
 -1       185-5.00000E-01-1.00000E+01 0.00000E+00
 -1       186-1.00000E+00-1.00000E+01 0.00000E+00
 -1       187-1.50000E+00-1.00000E+01 0.00000E+00
 -1       188-2.00000E+00-1.00000E+01 0.00000E+00
 -1       189-2.50000E+00-1.00000E+01 0.00000E+00
 -1       190-3.00000E+00-1.00000E+01 0.00000E+00
 -1       191-3.50000E+00-1.00000E+01 0.00000E+00
 -1       192-4.00000E+00-1.00000E+01 0.00000E+00
 -1       193-4.50000E+00-1.00000E+01 0.00000E+00
 -1       194-5.00000E+00-5.50000E+00 1.00000E+01
 -1       195-5.00000E+00-6.00000E+00 1.00000E+01
 -1       196-5.00000E+00-6.50000E+00 1.00000E+01
 -1       197-5.00000E+00-7.00000E+00 1.00000E+01
 -1       198-5.00000E+00-7.50000E+00 1.00000E+01
 -1       199-5.00000E+00-8.00000E+00 1.00000E+01
 -1       200-5.00000E+00-8.50000E+00 1.00000E+01
 -1       201-5.00000E+00-9.00000E+00 1.00000E+01
 -1       202-5.00000E+00-9.50000E+00 1.00000E+01
 -1       203 0.00000E+00-9.50000E+00 1.00000E+01
 -1       204 0.00000E+00-9.00000E+00 1.00000E+01
 -1       205 0.00000E+00-8.50000E+00 1.00000E+01
 -1       206 0.00000E+00-8.00000E+00 1.00000E+01
 -1       207 0.00000E+00-7.50000E+00 1.00000E+01
 -1       208 0.00000E+00-7.00000E+00 1.00000E+01
 -1       209 0.00000E+00-6.50000E+00 1.00000E+01
 -1       210 0.00000E+00-6.00000E+00 1.00000E+01
 -1       211 0.00000E+00-5.50000E+00 1.00000E+01
 -1       212-4.50000E+00-1.00000E+01 1.00000E+01
 -1       213-4.00000E+00-1.00000E+01 1.00000E+01
 -1       214-3.50000E+00-1.00000E+01 1.00000E+01
 -1       215-3.00000E+00-1.00000E+01 1.00000E+01
 -1       216-2.50000E+00-1.00000E+01 1.00000E+01
 -1       217-2.00000E+00-1.00000E+01 1.00000E+01
 -1       218-1.50000E+00-1.00000E+01 1.00000E+01
 -1       219-1.00000E+00-1.00000E+01 1.00000E+01
 -1       220-5.00000E-01-1.00000E+01 1.00000E+01
 -1       221 0.00000E+00-1.00000E+01 5.00000E-01
 -1       222 0.00000E+00-1.00000E+01 1.00000E+00
 -1       223 0.00000E+00-1.00000E+01 1.50000E+00
 -1       224 0.00000E+00-1.00000E+01 2.00000E+00
 -1       225 0.00000E+00-1.00000E+01 2.50000E+00
 -1       226 0.00000E+00-1.00000E+01 3.00000E+00
 -1       227 0.00000E+00-1.00000E+01 3.50000E+00
 -1       228 0.00000E+00-1.00000E+01 4.00000E+00
 -1       229 0.00000E+00-1.00000E+01 4.50000E+00
 -1       230 0.00000E+00-1.00000E+01 5.00000E+00
 -1       231 0.00000E+00-1.00000E+01 5.50000E+00
 -1       232 0.00000E+00-1.00000E+01 6.00000E+00
 -1       233 0.00000E+00-1.00000E+01 6.50000E+00
 -1       234 0.00000E+00-1.00000E+01 7.00000E+00
 -1       235 0.00000E+00-1.00000E+01 7.50000E+00
 -1       236 0.00000E+00-1.00000E+01 8.00000E+00
 -1       237 0.00000E+00-1.00000E+01 8.50000E+00
 -1       238 0.00000E+00-1.00000E+01 9.00000E+00
 -1       239 0.00000E+00-1.00000E+01 9.50000E+00
 -1       240-5.00000E+00-1.00000E+01 9.50000E+00
 -1       241-5.00000E+00-1.00000E+01 9.00000E+00
 -1       242-5.00000E+00-1.00000E+01 8.50000E+00
 -1       243-5.00000E+00-1.00000E+01 8.00000E+00
 -1       244-5.00000E+00-1.00000E+01 7.50000E+00
 -1       245-5.00000E+00-1.00000E+01 7.00000E+00
 -1       246-5.00000E+00-1.00000E+01 6.50000E+00
 -1       247-5.00000E+00-1.00000E+01 6.00000E+00
 -1       248-5.00000E+00-1.00000E+01 5.50000E+00
 -1       249-5.00000E+00-1.00000E+01 5.00000E+00
 -1       250-5.00000E+00-1.00000E+01 4.50000E+00
 -1       251-5.00000E+00-1.00000E+01 4.00000E+00
 -1       252-5.00000E+00-1.00000E+01 3.50000E+00
 -1       253-5.00000E+00-1.00000E+01 3.00000E+00
 -1       254-5.00000E+00-1.00000E+01 2.50000E+00
 -1       255-5.00000E+00-1.00000E+01 2.00000E+00
 -1       256-5.00000E+00-1.00000E+01 1.50000E+00
 -1       257-5.00000E+00-1.00000E+01 1.00000E+00
 -1       258-5.00000E+00-1.00000E+01 5.00000E-01
 -1       259-1.00000E+01-5.00000E+00 9.50000E+00
 -1       260-1.00000E+01-5.00000E+00 9.00000E+00
 -1       261-1.00000E+01-5.00000E+00 8.50000E+00
 -1       262-1.00000E+01-5.00000E+00 8.00000E+00
 -1       263-1.00000E+01-5.00000E+00 7.50000E+00
 -1       264-1.00000E+01-5.00000E+00 7.00000E+00
 -1       265-1.00000E+01-5.00000E+00 6.50000E+00
 -1       266-1.00000E+01-5.00000E+00 6.00000E+00
 -1       267-1.00000E+01-5.00000E+00 5.50000E+00
 -1       268-1.00000E+01-5.00000E+00 5.00000E+00
 -1       269-1.00000E+01-5.00000E+00 4.50000E+00
 -1       270-1.00000E+01-5.00000E+00 4.00000E+00
 -1       271-1.00000E+01-5.00000E+00 3.50000E+00
 -1       272-1.00000E+01-5.00000E+00 3.00000E+00
 -1       273-1.00000E+01-5.00000E+00 2.50000E+00
 -1       274-1.00000E+01-5.00000E+00 2.00000E+00
 -1       275-1.00000E+01-5.00000E+00 1.50000E+00
 -1       276-1.00000E+01-5.00000E+00 1.00000E+00
 -1       277-1.00000E+01-5.00000E+00 5.00000E-01
 -1       278-1.00000E+01-5.50000E+00 0.00000E+00
 -1       279-1.00000E+01-6.00000E+00 0.00000E+00
 -1       280-1.00000E+01-6.50000E+00 0.00000E+00
 -1       281-1.00000E+01-7.00000E+00 0.00000E+00
 -1       282-1.00000E+01-7.50000E+00 0.00000E+00
 -1       283-1.00000E+01-8.00000E+00 0.00000E+00
 -1       284-1.00000E+01-8.50000E+00 0.00000E+00
 -1       285-1.00000E+01-9.00000E+00 0.00000E+00
 -1       286-1.00000E+01-9.50000E+00 0.00000E+00
 -1       287-1.00000E+01-1.00000E+01 5.00000E-01
 -1       288-1.00000E+01-1.00000E+01 1.00000E+00
 -1       289-1.00000E+01-1.00000E+01 1.50000E+00
 -1       290-1.00000E+01-1.00000E+01 2.00000E+00
 -1       291-1.00000E+01-1.00000E+01 2.50000E+00
 -1       292-1.00000E+01-1.00000E+01 3.00000E+00
 -1       293-1.00000E+01-1.00000E+01 3.50000E+00
 -1       294-1.00000E+01-1.00000E+01 4.00000E+00
 -1       295-1.00000E+01-1.00000E+01 4.50000E+00
 -1       296-1.00000E+01-1.00000E+01 5.00000E+00
 -1       297-1.00000E+01-1.00000E+01 5.50000E+00
 -1       298-1.00000E+01-1.00000E+01 6.00000E+00
 -1       299-1.00000E+01-1.00000E+01 6.50000E+00
 -1       300-1.00000E+01-1.00000E+01 7.00000E+00
 -1       301-1.00000E+01-1.00000E+01 7.50000E+00
 -1       302-1.00000E+01-1.00000E+01 8.00000E+00
 -1       303-1.00000E+01-1.00000E+01 8.50000E+00
 -1       304-1.00000E+01-1.00000E+01 9.00000E+00
 -1       305-1.00000E+01-1.00000E+01 9.50000E+00
 -1       306-1.00000E+01-9.50000E+00 1.00000E+01
 -1       307-1.00000E+01-9.00000E+00 1.00000E+01
 -1       308-1.00000E+01-8.50000E+00 1.00000E+01
 -1       309-1.00000E+01-8.00000E+00 1.00000E+01
 -1       310-1.00000E+01-7.50000E+00 1.00000E+01
 -1       311-1.00000E+01-7.00000E+00 1.00000E+01
 -1       312-1.00000E+01-6.50000E+00 1.00000E+01
 -1       313-1.00000E+01-6.00000E+00 1.00000E+01
 -1       314-1.00000E+01-5.50000E+00 1.00000E+01
 -1       315-9.50000E+00-1.00000E+01 1.00000E+01
 -1       316-9.00000E+00-1.00000E+01 1.00000E+01
 -1       317-8.50000E+00-1.00000E+01 1.00000E+01
 -1       318-8.00000E+00-1.00000E+01 1.00000E+01
 -1       319-7.50000E+00-1.00000E+01 1.00000E+01
 -1       320-7.00000E+00-1.00000E+01 1.00000E+01
 -1       321-6.50000E+00-1.00000E+01 1.00000E+01
 -1       322-6.00000E+00-1.00000E+01 1.00000E+01
 -1       323-5.50000E+00-1.00000E+01 1.00000E+01
 -1       324-5.50000E+00-5.00000E+00 1.00000E+01
 -1       325-6.00000E+00-5.00000E+00 1.00000E+01
 -1       326-6.50000E+00-5.00000E+00 1.00000E+01
 -1       327-7.00000E+00-5.00000E+00 1.00000E+01
 -1       328-7.50000E+00-5.00000E+00 1.00000E+01
 -1       329-8.00000E+00-5.00000E+00 1.00000E+01
 -1       330-8.50000E+00-5.00000E+00 1.00000E+01
 -1       331-9.00000E+00-5.00000E+00 1.00000E+01
 -1       332-9.50000E+00-5.00000E+00 1.00000E+01
 -1       333-5.50000E+00-1.00000E+01 0.00000E+00
 -1       334-6.00000E+00-1.00000E+01 0.00000E+00
 -1       335-6.50000E+00-1.00000E+01 0.00000E+00
 -1       336-7.00000E+00-1.00000E+01 0.00000E+00
 -1       337-7.50000E+00-1.00000E+01 0.00000E+00
 -1       338-8.00000E+00-1.00000E+01 0.00000E+00
 -1       339-8.50000E+00-1.00000E+01 0.00000E+00
 -1       340-9.00000E+00-1.00000E+01 0.00000E+00
 -1       341-9.50000E+00-1.00000E+01 0.00000E+00
 -1       342-9.50000E+00-5.00000E+00 0.00000E+00
 -1       343-9.00000E+00-5.00000E+00 0.00000E+00
 -1       344-8.50000E+00-5.00000E+00 0.00000E+00
 -1       345-8.00000E+00-5.00000E+00 0.00000E+00
 -1       346-7.50000E+00-5.00000E+00 0.00000E+00
 -1       347-7.00000E+00-5.00000E+00 0.00000E+00
 -1       348-6.50000E+00-5.00000E+00 0.00000E+00
 -1       349-6.00000E+00-5.00000E+00 0.00000E+00
 -1       350-5.50000E+00-5.00000E+00 0.00000E+00
 -1       351-1.00000E+01-4.50000E+00 1.00000E+01
 -1       352-1.00000E+01-4.00000E+00 1.00000E+01
 -1       353-1.00000E+01-3.50000E+00 1.00000E+01
 -1       354-1.00000E+01-3.00000E+00 1.00000E+01
 -1       355-1.00000E+01-2.50000E+00 1.00000E+01
 -1       356-1.00000E+01-2.00000E+00 1.00000E+01
 -1       357-1.00000E+01-1.50000E+00 1.00000E+01
 -1       358-1.00000E+01-1.00000E+00 1.00000E+01
 -1       359-1.00000E+01-5.00000E-01 1.00000E+01
 -1       360-1.00000E+01 0.00000E+00 9.50000E+00
 -1       361-1.00000E+01 0.00000E+00 9.00000E+00
 -1       362-1.00000E+01 0.00000E+00 8.50000E+00
 -1       363-1.00000E+01 0.00000E+00 8.00000E+00
 -1       364-1.00000E+01 0.00000E+00 7.50000E+00
 -1       365-1.00000E+01 0.00000E+00 7.00000E+00
 -1       366-1.00000E+01 0.00000E+00 6.50000E+00
 -1       367-1.00000E+01 0.00000E+00 6.00000E+00
 -1       368-1.00000E+01 0.00000E+00 5.50000E+00
 -1       369-1.00000E+01 0.00000E+00 5.00000E+00
 -1       370-1.00000E+01 0.00000E+00 4.50000E+00
 -1       371-1.00000E+01 0.00000E+00 4.00000E+00
 -1       372-1.00000E+01 0.00000E+00 3.50000E+00
 -1       373-1.00000E+01 0.00000E+00 3.00000E+00
 -1       374-1.00000E+01 0.00000E+00 2.50000E+00
 -1       375-1.00000E+01 0.00000E+00 2.00000E+00
 -1       376-1.00000E+01 0.00000E+00 1.50000E+00
 -1       377-1.00000E+01 0.00000E+00 1.00000E+00
 -1       378-1.00000E+01 0.00000E+00 5.00000E-01
 -1       379-1.00000E+01-5.00000E-01 0.00000E+00
 -1       380-1.00000E+01-1.00000E+00 0.00000E+00
 -1       381-1.00000E+01-1.50000E+00 0.00000E+00
 -1       382-1.00000E+01-2.00000E+00 0.00000E+00
 -1       383-1.00000E+01-2.50000E+00 0.00000E+00
 -1       384-1.00000E+01-3.00000E+00 0.00000E+00
 -1       385-1.00000E+01-3.50000E+00 0.00000E+00
 -1       386-1.00000E+01-4.00000E+00 0.00000E+00
 -1       387-1.00000E+01-4.50000E+00 0.00000E+00
 -1       388-9.50000E+00 0.00000E+00 0.00000E+00
 -1       389-9.00000E+00 0.00000E+00 0.00000E+00
 -1       390-8.50000E+00 0.00000E+00 0.00000E+00
 -1       391-8.00000E+00 0.00000E+00 0.00000E+00
 -1       392-7.50000E+00 0.00000E+00 0.00000E+00
 -1       393-7.00000E+00 0.00000E+00 0.00000E+00
 -1       394-6.50000E+00 0.00000E+00 0.00000E+00
 -1       395-6.00000E+00 0.00000E+00 0.00000E+00
 -1       396-5.50000E+00 0.00000E+00 0.00000E+00
 -1       397-5.50000E+00 0.00000E+00 1.00000E+01
 -1       398-6.00000E+00 0.00000E+00 1.00000E+01
 -1       399-6.50000E+00 0.00000E+00 1.00000E+01
 -1       400-7.00000E+00 0.00000E+00 1.00000E+01
 -1       401-7.50000E+00 0.00000E+00 1.00000E+01
 -1       402-8.00000E+00 0.00000E+00 1.00000E+01
 -1       403-8.50000E+00 0.00000E+00 1.00000E+01
 -1       404-9.00000E+00 0.00000E+00 1.00000E+01
 -1       405-9.50000E+00 0.00000E+00 1.00000E+01
 -1       406-4.50000E+00-5.00000E-01 1.00000E+01
 -1       407-4.50000E+00-1.00000E+00 1.00000E+01
 -1       408-4.50000E+00-1.50000E+00 1.00000E+01
 -1       409-4.50000E+00-2.00000E+00 1.00000E+01
 -1       410-4.50000E+00-2.50000E+00 1.00000E+01
 -1       411-4.50000E+00-3.00000E+00 1.00000E+01
 -1       412-4.50000E+00-3.50000E+00 1.00000E+01
 -1       413-4.50000E+00-4.00000E+00 1.00000E+01
 -1       414-4.50000E+00-4.50000E+00 1.00000E+01
 -1       415-4.00000E+00-5.00000E-01 1.00000E+01
 -1       416-4.00000E+00-1.00000E+00 1.00000E+01
 -1       417-4.00000E+00-1.50000E+00 1.00000E+01
 -1       418-4.00000E+00-2.00000E+00 1.00000E+01
 -1       419-4.00000E+00-2.50000E+00 1.00000E+01
 -1       420-4.00000E+00-3.00000E+00 1.00000E+01
 -1       421-4.00000E+00-3.50000E+00 1.00000E+01
 -1       422-4.00000E+00-4.00000E+00 1.00000E+01
 -1       423-4.00000E+00-4.50000E+00 1.00000E+01
 -1       424-3.50000E+00-5.00000E-01 1.00000E+01
 -1       425-3.50000E+00-1.00000E+00 1.00000E+01
 -1       426-3.50000E+00-1.50000E+00 1.00000E+01
 -1       427-3.50000E+00-2.00000E+00 1.00000E+01
 -1       428-3.50000E+00-2.50000E+00 1.00000E+01
 -1       429-3.50000E+00-3.00000E+00 1.00000E+01
 -1       430-3.50000E+00-3.50000E+00 1.00000E+01
 -1       431-3.50000E+00-4.00000E+00 1.00000E+01
 -1       432-3.50000E+00-4.50000E+00 1.00000E+01
 -1       433-3.00000E+00-5.00000E-01 1.00000E+01
 -1       434-3.00000E+00-1.00000E+00 1.00000E+01
 -1       435-3.00000E+00-1.50000E+00 1.00000E+01
 -1       436-3.00000E+00-2.00000E+00 1.00000E+01
 -1       437-3.00000E+00-2.50000E+00 1.00000E+01
 -1       438-3.00000E+00-3.00000E+00 1.00000E+01
 -1       439-3.00000E+00-3.50000E+00 1.00000E+01
 -1       440-3.00000E+00-4.00000E+00 1.00000E+01
 -1       441-3.00000E+00-4.50000E+00 1.00000E+01
 -1       442-2.50000E+00-5.00000E-01 1.00000E+01
 -1       443-2.50000E+00-1.00000E+00 1.00000E+01
 -1       444-2.50000E+00-1.50000E+00 1.00000E+01
 -1       445-2.50000E+00-2.00000E+00 1.00000E+01
 -1       446-2.50000E+00-2.50000E+00 1.00000E+01
 -1       447-2.50000E+00-3.00000E+00 1.00000E+01
 -1       448-2.50000E+00-3.50000E+00 1.00000E+01
 -1       449-2.50000E+00-4.00000E+00 1.00000E+01
 -1       450-2.50000E+00-4.50000E+00 1.00000E+01
 -1       451-2.00000E+00-5.00000E-01 1.00000E+01
 -1       452-2.00000E+00-1.00000E+00 1.00000E+01
 -1       453-2.00000E+00-1.50000E+00 1.00000E+01
 -1       454-2.00000E+00-2.00000E+00 1.00000E+01
 -1       455-2.00000E+00-2.50000E+00 1.00000E+01
 -1       456-2.00000E+00-3.00000E+00 1.00000E+01
 -1       457-2.00000E+00-3.50000E+00 1.00000E+01
 -1       458-2.00000E+00-4.00000E+00 1.00000E+01
 -1       459-2.00000E+00-4.50000E+00 1.00000E+01
 -1       460-1.50000E+00-5.00000E-01 1.00000E+01
 -1       461-1.50000E+00-1.00000E+00 1.00000E+01
 -1       462-1.50000E+00-1.50000E+00 1.00000E+01
 -1       463-1.50000E+00-2.00000E+00 1.00000E+01
 -1       464-1.50000E+00-2.50000E+00 1.00000E+01
 -1       465-1.50000E+00-3.00000E+00 1.00000E+01
 -1       466-1.50000E+00-3.50000E+00 1.00000E+01
 -1       467-1.50000E+00-4.00000E+00 1.00000E+01
 -1       468-1.50000E+00-4.50000E+00 1.00000E+01
 -1       469-1.00000E+00-5.00000E-01 1.00000E+01
 -1       470-1.00000E+00-1.00000E+00 1.00000E+01
 -1       471-1.00000E+00-1.50000E+00 1.00000E+01
 -1       472-1.00000E+00-2.00000E+00 1.00000E+01
 -1       473-1.00000E+00-2.50000E+00 1.00000E+01
 -1       474-1.00000E+00-3.00000E+00 1.00000E+01
 -1       475-1.00000E+00-3.50000E+00 1.00000E+01
 -1       476-1.00000E+00-4.00000E+00 1.00000E+01
 -1       477-1.00000E+00-4.50000E+00 1.00000E+01
 -1       478-5.00000E-01-5.00000E-01 1.00000E+01
 -1       479-5.00000E-01-1.00000E+00 1.00000E+01
 -1       480-5.00000E-01-1.50000E+00 1.00000E+01
 -1       481-5.00000E-01-2.00000E+00 1.00000E+01
 -1       482-5.00000E-01-2.50000E+00 1.00000E+01
 -1       483-5.00000E-01-3.00000E+00 1.00000E+01
 -1       484-5.00000E-01-3.50000E+00 1.00000E+01
 -1       485-5.00000E-01-4.00000E+00 1.00000E+01
 -1       486-5.00000E-01-4.50000E+00 1.00000E+01
 -1       487-4.50000E+00-5.00000E-01 0.00000E+00
 -1       488-4.50000E+00-1.00000E+00 0.00000E+00
 -1       489-4.50000E+00-1.50000E+00 0.00000E+00
 -1       490-4.50000E+00-2.00000E+00 0.00000E+00
 -1       491-4.50000E+00-2.50000E+00 0.00000E+00
 -1       492-4.50000E+00-3.00000E+00 0.00000E+00
 -1       493-4.50000E+00-3.50000E+00 0.00000E+00
 -1       494-4.50000E+00-4.00000E+00 0.00000E+00
 -1       495-4.50000E+00-4.50000E+00 0.00000E+00
 -1       496-4.00000E+00-5.00000E-01 0.00000E+00
 -1       497-4.00000E+00-1.00000E+00 0.00000E+00
 -1       498-4.00000E+00-1.50000E+00 0.00000E+00
 -1       499-4.00000E+00-2.00000E+00 0.00000E+00
 -1       500-4.00000E+00-2.50000E+00 0.00000E+00
 -1       501-4.00000E+00-3.00000E+00 0.00000E+00
 -1       502-4.00000E+00-3.50000E+00 0.00000E+00
 -1       503-4.00000E+00-4.00000E+00 0.00000E+00
 -1       504-4.00000E+00-4.50000E+00 0.00000E+00
 -1       505-3.50000E+00-5.00000E-01 0.00000E+00
 -1       506-3.50000E+00-1.00000E+00 0.00000E+00
 -1       507-3.50000E+00-1.50000E+00 0.00000E+00
 -1       508-3.50000E+00-2.00000E+00 0.00000E+00
 -1       509-3.50000E+00-2.50000E+00 0.00000E+00
 -1       510-3.50000E+00-3.00000E+00 0.00000E+00
 -1       511-3.50000E+00-3.50000E+00 0.00000E+00
 -1       512-3.50000E+00-4.00000E+00 0.00000E+00
 -1       513-3.50000E+00-4.50000E+00 0.00000E+00
 -1       514-3.00000E+00-5.00000E-01 0.00000E+00
 -1       515-3.00000E+00-1.00000E+00 0.00000E+00
 -1       516-3.00000E+00-1.50000E+00 0.00000E+00
 -1       517-3.00000E+00-2.00000E+00 0.00000E+00
 -1       518-3.00000E+00-2.50000E+00 0.00000E+00
 -1       519-3.00000E+00-3.00000E+00 0.00000E+00
 -1       520-3.00000E+00-3.50000E+00 0.00000E+00
 -1       521-3.00000E+00-4.00000E+00 0.00000E+00
 -1       522-3.00000E+00-4.50000E+00 0.00000E+00
 -1       523-2.50000E+00-5.00000E-01 0.00000E+00
 -1       524-2.50000E+00-1.00000E+00 0.00000E+00
 -1       525-2.50000E+00-1.50000E+00 0.00000E+00
 -1       526-2.50000E+00-2.00000E+00 0.00000E+00
 -1       527-2.50000E+00-2.50000E+00 0.00000E+00
 -1       528-2.50000E+00-3.00000E+00 0.00000E+00
 -1       529-2.50000E+00-3.50000E+00 0.00000E+00
 -1       530-2.50000E+00-4.00000E+00 0.00000E+00
 -1       531-2.50000E+00-4.50000E+00 0.00000E+00
 -1       532-2.00000E+00-5.00000E-01 0.00000E+00
 -1       533-2.00000E+00-1.00000E+00 0.00000E+00
 -1       534-2.00000E+00-1.50000E+00 0.00000E+00
 -1       535-2.00000E+00-2.00000E+00 0.00000E+00
 -1       536-2.00000E+00-2.50000E+00 0.00000E+00
 -1       537-2.00000E+00-3.00000E+00 0.00000E+00
 -1       538-2.00000E+00-3.50000E+00 0.00000E+00
 -1       539-2.00000E+00-4.00000E+00 0.00000E+00
 -1       540-2.00000E+00-4.50000E+00 0.00000E+00
 -1       541-1.50000E+00-5.00000E-01 0.00000E+00
 -1       542-1.50000E+00-1.00000E+00 0.00000E+00
 -1       543-1.50000E+00-1.50000E+00 0.00000E+00
 -1       544-1.50000E+00-2.00000E+00 0.00000E+00
 -1       545-1.50000E+00-2.50000E+00 0.00000E+00
 -1       546-1.50000E+00-3.00000E+00 0.00000E+00
 -1       547-1.50000E+00-3.50000E+00 0.00000E+00
 -1       548-1.50000E+00-4.00000E+00 0.00000E+00
 -1       549-1.50000E+00-4.50000E+00 0.00000E+00
 -1       550-1.00000E+00-5.00000E-01 0.00000E+00
 -1       551-1.00000E+00-1.00000E+00 0.00000E+00
 -1       552-1.00000E+00-1.50000E+00 0.00000E+00
 -1       553-1.00000E+00-2.00000E+00 0.00000E+00
 -1       554-1.00000E+00-2.50000E+00 0.00000E+00
 -1       555-1.00000E+00-3.00000E+00 0.00000E+00
 -1       556-1.00000E+00-3.50000E+00 0.00000E+00
 -1       557-1.00000E+00-4.00000E+00 0.00000E+00
 -1       558-1.00000E+00-4.50000E+00 0.00000E+00
 -1       559-5.00000E-01-5.00000E-01 0.00000E+00
 -1       560-5.00000E-01-1.00000E+00 0.00000E+00
 -1       561-5.00000E-01-1.50000E+00 0.00000E+00
 -1       562-5.00000E-01-2.00000E+00 0.00000E+00
 -1       563-5.00000E-01-2.50000E+00 0.00000E+00
 -1       564-5.00000E-01-3.00000E+00 0.00000E+00
 -1       565-5.00000E-01-3.50000E+00 0.00000E+00
 -1       566-5.00000E-01-4.00000E+00 0.00000E+00
 -1       567-5.00000E-01-4.50000E+00 0.00000E+00
 -1       568-4.50000E+00 0.00000E+00 9.50000E+00
 -1       569-4.00000E+00 0.00000E+00 9.50000E+00
 -1       570-3.50000E+00 0.00000E+00 9.50000E+00
 -1       571-3.00000E+00 0.00000E+00 9.50000E+00
 -1       572-2.50000E+00 0.00000E+00 9.50000E+00
 -1       573-2.00000E+00 0.00000E+00 9.50000E+00
 -1       574-1.50000E+00 0.00000E+00 9.50000E+00
 -1       575-1.00000E+00 0.00000E+00 9.50000E+00
 -1       576-5.00000E-01 0.00000E+00 9.50000E+00
 -1       577-4.50000E+00 0.00000E+00 9.00000E+00
 -1       578-4.00000E+00 0.00000E+00 9.00000E+00
 -1       579-3.50000E+00 0.00000E+00 9.00000E+00
 -1       580-3.00000E+00 0.00000E+00 9.00000E+00
 -1       581-2.50000E+00 0.00000E+00 9.00000E+00
 -1       582-2.00000E+00 0.00000E+00 9.00000E+00
 -1       583-1.50000E+00 0.00000E+00 9.00000E+00
 -1       584-1.00000E+00 0.00000E+00 9.00000E+00
 -1       585-5.00000E-01 0.00000E+00 9.00000E+00
 -1       586-4.50000E+00 0.00000E+00 8.50000E+00
 -1       587-4.00000E+00 0.00000E+00 8.50000E+00
 -1       588-3.50000E+00 0.00000E+00 8.50000E+00